           6
Time step:                4000 Sim. Time [au]       80000.00
O     0.19611251E+01   -0.16187969E+01   -0.21422933E+01
O     0.13832147E+01   -0.63280764E+00    0.46335686E+00
H     0.21539654E+01   -0.17017355E+01   -0.11388356E+01
H     0.10788082E+01   -0.11721922E+01   -0.20663249E+01
H     0.73182316E+00   -0.99702596E+00    0.11063017E+01
H     0.12196009E+01    0.25449154E+00    0.55438285E+00
