           6
 Time step:          10
O  -0.1484736189E+01  0.2181959214E-01 -0.1339275257E+00
O   0.1417425069E+01  0.4138370211E-02  0.1480839967E+00
H  -0.2020942867E+01 -0.2087917499E+00  0.6356046404E+00
H  -0.5691068771E+00 -0.1452165406E+00  0.7317761330E-01
H   0.1727953700E+01 -0.8218779995E+00 -0.2518756298E+00
H   0.1674100509E+01  0.7794634916E+00 -0.3374667435E+00
           6
 Time step:          20
O  -0.1476726727E+01  0.3800818485E-01 -0.1354760340E+00
O   0.1411809022E+01  0.5384764121E-03  0.1659119705E+00
H  -0.2048399137E+01 -0.4127539153E+00  0.5144374596E+00
H  -0.5802542219E+00 -0.1280368498E+00  0.1121885876E+00
H   0.1805867654E+01 -0.7644645037E+00 -0.3129806957E+00
H   0.1596801836E+01  0.7090243413E+00 -0.4525935328E+00
           6
 Time step:          30
O  -0.1466587318E+01  0.4924634921E-01 -0.1381171594E+00
O   0.1411815232E+01 -0.7241611124E-02  0.1642791089E+00
H  -0.2002019514E+01 -0.5871375661E+00  0.3880602823E+00
H  -0.5802701739E+00 -0.6012949108E-02  0.1646077026E+00
H   0.1813370421E+01 -0.8071729074E+00 -0.2256836029E+00
H   0.1381903882E+01  0.7492058171E+00 -0.3980957411E+00
           6
 Time step:          40
O  -0.1452874836E+01  0.6004823366E-01 -0.1401641179E+00
O   0.1394989550E+01 -0.1109825727E-01  0.1855115686E+00
H  -0.1909124277E+01 -0.7298927347E+00  0.2621572966E+00
H  -0.5889656016E+00  0.3770284763E-01  0.2169120673E+00
H   0.1829058600E+01 -0.7258605613E+00 -0.3533698427E+00
H   0.1331428680E+01  0.6566978548E+00 -0.5013236119E+00
           6
 Time step:          50
O  -0.1434312124E+01  0.6502233878E-01 -0.1352524288E+00
O   0.1383201594E+01 -0.8333027614E-02  0.1775017912E+00
H  -0.1875453395E+01 -0.8111479461E+00  0.7616670633E-01
H  -0.5754640106E+00  0.2244687552E-01  0.2329923835E+00
H   0.1763688833E+01 -0.8159833903E+00 -0.2246815927E+00
H   0.1242096889E+01  0.7204929613E+00 -0.4109286563E+00
           6
 Time step:          60
O  -0.1413142519E+01  0.6621820815E-01 -0.1270639690E+00
O   0.1361004272E+01  0.2339843378E-03  0.1947879065E+00
H  -0.1870524733E+01 -0.8367502967E+00 -0.1376223006E+00
H  -0.5617412939E+00 -0.6490900982E-01  0.2555852151E+00
H   0.1673998626E+01 -0.7892506834E+00 -0.3233909510E+00
H   0.1329447667E+01  0.6517618051E+00 -0.5253561832E+00
           6
 Time step:          70
O  -0.1392376895E+01  0.6248098564E-01 -0.1199387859E+00
O   0.1344747574E+01  0.4513807952E-02  0.1855414531E+00
H  -0.1868237742E+01 -0.8082862534E+00 -0.3387833829E+00
H  -0.5481499630E+00 -0.1151255483E+00  0.2779126643E+00
H   0.1579647620E+01 -0.8635175501E+00 -0.1978083988E+00
H   0.1336354579E+01  0.7391689893E+00 -0.4384362507E+00
           6
 Time step:          80
O  -0.1380441799E+01  0.6392398082E-01 -0.1171163130E+00
O   0.1324364961E+01  0.3247149489E-02  0.2019801268E+00
H  -0.1785405378E+01 -0.8079191794E+00 -0.4686080704E+00
H  -0.5226569601E+00 -0.1337031035E+00  0.2707141782E+00
H   0.1594945018E+01 -0.8044416327E+00 -0.2973561931E+00
H   0.1346811011E+01  0.6955047326E+00 -0.5075786591E+00
           6
 Time step:          90
O  -0.1378273274E+01  0.6652974839E-01 -0.1195239186E+00
O   0.1315718687E+01 -0.7790884321E-02  0.2001089438E+00
H  -0.1679200804E+01 -0.8188758147E+00 -0.5415610220E+00
H  -0.4888627652E+00 -0.7551314194E-01  0.2642351934E+00
H   0.1671883874E+01 -0.7938391005E+00 -0.2506021929E+00
H   0.1232688355E+01  0.7715060046E+00 -0.4069876868E+00
           6
 Time step:         100
O  -0.1383435893E+01  0.7059732167E-01 -0.1260291490E+00
O   0.1308848594E+01 -0.2008288713E-01  0.2097752643E+00
H  -0.1585875547E+01 -0.8262507085E+00 -0.5843528511E+00
H  -0.4977342182E+00 -0.5082907074E-01  0.3047523708E+00
H   0.1802228215E+01 -0.6878340842E+00 -0.3070934337E+00
H   0.1208873717E+01  0.7787301518E+00 -0.3983946921E+00
           6
 Time step:         110
O  -0.1390902354E+01  0.7282500093E-01 -0.1348030473E+00
O   0.1315521955E+01 -0.2785555999E-01  0.2115256298E+00
H  -0.1576502002E+01 -0.8022145374E+00 -0.6346072430E+00
H  -0.5507173770E+00 -0.8344388409E-01  0.3848844439E+00
H   0.1907827155E+01 -0.6183745694E+00 -0.2850392685E+00
H   0.1159472487E+01  0.8058595491E+00 -0.3388488591E+00
           6
 Time step:         120
O  -0.1401030708E+01  0.7501337098E-01 -0.1415920640E+00
O   0.1327279699E+01 -0.3175526639E-01  0.2157756750E+00
H  -0.1617243720E+01 -0.7535474601E+00 -0.6961765847E+00
H  -0.5901196614E+00 -0.1720941538E+00  0.4054188489E+00
H   0.2004746605E+01 -0.5613622348E+00 -0.2457078515E+00
H   0.1116835316E+01  0.8159927778E+00 -0.2968467223E+00
           6
 Time step:         130
O  -0.1411574575E+01  0.7464094378E-01 -0.1444456366E+00
O   0.1338804586E+01 -0.3504510717E-01  0.2313386485E+00
H  -0.1694455068E+01 -0.6684246107E+00 -0.7773404394E+00
H  -0.5814008389E+00 -0.2555722423E+00  0.3391543903E+00
H   0.2090171106E+01 -0.4527664755E+00 -0.2477941130E+00
H   0.1084332581E+01  0.7638798617E+00 -0.3490560600E+00
           6
 Time step:         140
O  -0.1419497879E+01  0.7245287263E-01 -0.1464167318E+00
O   0.1354726902E+01 -0.3183175814E-01  0.2355766787E+00
H  -0.1774585332E+01 -0.5581840867E+00 -0.8466796106E+00
H  -0.5579323354E+00 -0.3438480232E+00  0.2324511812E+00
H   0.2155121387E+01 -0.4481057286E+00 -0.1610546323E+00
H   0.9490835557E+00  0.7209811369E+00 -0.2957340084E+00
           6
 Time step:         150
O  -0.1418055103E+01  0.7013995636E-01 -0.1504032297E+00
O   0.1354667850E+01 -0.3454299090E-01  0.2555769713E+00
H  -0.1842448205E+01 -0.4461938051E+00 -0.8970717393E+00
H  -0.5978050491E+00 -0.4704381854E+00  0.1769220788E+00
H   0.2188273581E+01 -0.3140737439E+00 -0.2334789413E+00
H   0.1001704447E+01  0.6812924456E+00 -0.3715597986E+00
           6
 Time step:         160
O  -0.1410405012E+01  0.6757107746E-01 -0.1588049640E+00
O   0.1359144012E+01 -0.3113846828E-01  0.2492872693E+00
H  -0.1884908031E+01 -0.3574319373E+00 -0.9145789200E+00
H  -0.6450327826E+00 -0.5595075530E+00  0.1719790683E+00
H   0.2228827793E+01 -0.3381034054E+00 -0.1353105683E+00
H   0.8583696221E+00  0.6923662497E+00 -0.2140951524E+00
           6
 Time step:         170
O  -0.1396917154E+01  0.7096968744E-01 -0.1660719181E+00
O   0.1344761123E+01 -0.4568294928E-01  0.2679836744E+00
H  -0.1865155599E+01 -0.3480999288E+00 -0.9253241817E+00
H  -0.6801420499E+00 -0.6234191017E+00  0.1567847741E+00
H   0.2210754801E+01 -0.1279689924E+00 -0.2794958943E+00
H   0.9060053993E+00  0.7137189067E+00 -0.2253787887E+00
           6
 Time step:         180
O  -0.1380422822E+01  0.7111322141E-01 -0.1769988665E+00
O   0.1337766261E+01 -0.4701732324E-01  0.2616070947E+00
H  -0.1847293460E+01 -0.3337783144E+00 -0.9303824420E+00
H  -0.6413818405E+00 -0.5848184635E+00  0.1846009577E+00
H   0.2209413862E+01 -0.1164453791E+00 -0.2526490918E+00
H   0.6999481858E+00  0.6681740816E+00 -0.3415050034E-03
           6
 Time step:         190
O  -0.1358862165E+01  0.7697836845E-01 -0.1817292207E+00
O   0.1317269941E+01 -0.6414716686E-01  0.2757298193E+00
H  -0.1774936821E+01 -0.3631136126E+00 -0.9500495116E+00
H  -0.6413005468E+00 -0.6278407206E+00  0.1570683873E+00
H   0.2106609644E+01  0.9925046038E-01 -0.3806736634E+00
H   0.7134213123E+00  0.7036293299E+00  0.2580678160E-01
           6
 Time step:         200
O  -0.1334974701E+01  0.7007476565E-01 -0.1886330312E+00
O   0.1300950759E+01 -0.5710782352E-01  0.2727084261E+00
H  -0.1751262561E+01 -0.2751424143E+00 -0.9965306499E+00
H  -0.6307805922E+00 -0.6195949019E+00  0.1924460425E+00
H   0.2066864871E+01  0.5135934327E-01 -0.3990093947E+00
H   0.5988479046E+00  0.6531489529E+00  0.2127790655E+00
           6
 Time step:         210
O  -0.1315404850E+01  0.6795195323E-01 -0.1850980740E+00
O   0.1284619333E+01 -0.5867030660E-01  0.2873707168E+00
H  -0.1678783273E+01 -0.2043148956E+00 -0.1060306734E+01
H  -0.6748180620E+00 -0.7385941557E+00  0.8018692059E-01
H   0.1956037925E+01  0.9862300362E-01 -0.4839738393E+00
H   0.6298326790E+00  0.7125501257E+00  0.1849515638E+00
           6
 Time step:         220
O  -0.1305228743E+01  0.5258067499E-01 -0.1887901930E+00
O   0.1278071950E+01 -0.4779866932E-01  0.2944552091E+00
H  -0.1659048999E+01 -0.4496906420E-02 -0.1107538874E+01
H  -0.6317057481E+00 -0.7251687366E+00  0.4057597127E-01
H   0.1910136228E+01  0.4333290319E-02 -0.5078909259E+00
H   0.5552925890E+00  0.6650148392E+00  0.2418679104E+00
           6
 Time step:         230
O  -0.1307114793E+01  0.4816467758E-01 -0.1845420684E+00
O   0.1281417247E+01 -0.4309663919E-01  0.3113444202E+00
H  -0.1585509230E+01  0.7340856126E-01 -0.1152960154E+01
H  -0.5963660765E+00 -0.7421239719E+00 -0.1552902265E+00
H   0.1827505743E+01 -0.1995077166E-01 -0.5476587545E+00
H   0.5058824520E+00  0.6238087504E+00  0.1874309210E+00
           6
 Time step:         240
O  -0.1310478777E+01  0.3683344125E-01 -0.2003877684E+00
O   0.1290133335E+01 -0.4180019793E-01  0.3198168766E+00
H  -0.1629838393E+01  0.2239302284E+00 -0.1137846840E+01
H  -0.6248852083E+00 -0.7518489980E+00 -0.1242103635E+00
H   0.1813662253E+01  0.1832126776E-02 -0.5409895705E+00
H   0.5076254947E+00  0.6205017174E+00  0.2515968597E+00
           6
 Time step:         250
O  -0.1324283739E+01  0.4121513184E-01 -0.2045320035E+00
O   0.1304048365E+01 -0.4616136524E-01  0.3256275296E+00
H  -0.1609135854E+01  0.1695114845E+00 -0.1187689374E+01
H  -0.6967767715E+00 -0.7953718665E+00 -0.2425891554E+00
H   0.1840122874E+01  0.8867872189E-01 -0.4987403307E+00
H   0.5306069089E+00  0.6312709888E+00  0.3511195220E+00
           6
 Time step:         260
O  -0.1340975814E+01  0.4106141649E-01 -0.2245556199E+00
O   0.1327112739E+01 -0.5707249439E-01  0.3342300716E+00
H  -0.1682702590E+01  0.1948986603E+00 -0.1185009233E+01
H  -0.7074527312E+00 -0.7699358345E+00 -0.1501276928E+00
H   0.1844791394E+01  0.2704754226E+00 -0.4397484363E+00
H   0.5090398038E+00  0.5742725551E+00  0.3782615886E+00
           6
 Time step:         270
O  -0.1361862449E+01  0.5091460070E-01 -0.2317050435E+00
O   0.1347496135E+01 -0.6015984327E-01  0.3355255574E+00
H  -0.1688067074E+01  0.8582139583E-01 -0.1229179027E+01
H  -0.7274848396E+00 -0.7621282172E+00 -0.2168034143E+00
H   0.1907883708E+01  0.3691944779E+00 -0.3283473013E+00
H   0.4793315226E+00  0.4694356470E+00  0.4706198111E+00
           6
 Time step:         280
O  -0.1377432724E+01  0.4695047990E-01 -0.2476402475E+00
O   0.1366460589E+01 -0.7057383347E-01  0.3429402768E+00
H  -0.1755523908E+01  0.1389003232E+00 -0.1220851476E+01
H  -0.7510962950E+00 -0.7552136886E+00 -0.1850170212E+00
H   0.1907947023E+01  0.5047352488E+00 -0.2211933715E+00
H   0.5164639977E+00  0.5021111398E+00  0.4585892716E+00
           6
 Time step:         290
O  -0.1390616049E+01  0.4441617452E-01 -0.2534281799E+00
O   0.1376223809E+01 -0.6208892511E-01  0.3448082919E+00
H  -0.1765350732E+01  0.1635903015E+00 -0.1232557157E+01
H  -0.8005628089E+00 -0.7847904474E+00 -0.2823514190E+00
H   0.2024450023E+01  0.4672959711E+00 -0.1153686114E+00
H   0.5135383317E+00  0.4499890856E+00  0.5240216110E+00
           6
 Time step:         300
O  -0.1398986418E+01  0.3369775841E-01 -0.2597719128E+00
O   0.1382059509E+01 -0.6813708663E-01  0.3544693157E+00
H  -0.1772668799E+01  0.2843662904E+00 -0.1214813922E+01
H  -0.8226908357E+00 -0.7932473324E+00 -0.3534510235E+00
H   0.2043547331E+01  0.5239793686E+00 -0.2473243810E-01
H   0.5641174329E+00  0.5471061033E+00  0.4340896881E+00
           6
 Time step:         310
O  -0.1404306727E+01  0.2373504642E-01 -0.2632802836E+00
O   0.1381463696E+01 -0.5599659367E-01  0.3602880519E+00
H  -0.1737994373E+01  0.3980296412E+00 -0.1184886554E+01
H  -0.7956227462E+00 -0.7691223474E+00 -0.4332641509E+00
H   0.2135417595E+01  0.4491005910E+00  0.5678032507E-01
H   0.5044054890E+00  0.4496307534E+00  0.3657925124E+00
           6
 Time step:         320
O  -0.1399129811E+01  0.1694249956E-01 -0.2632211699E+00
O   0.1372775621E+01 -0.6430301997E-01  0.3683290242E+00
H  -0.1674754160E+01  0.4722098005E+00 -0.1171107427E+01
H  -0.8038846820E+00 -0.7636019668E+00 -0.5294842826E+00
H   0.2093050847E+01  0.5403922256E+00  0.1040560090E+00
H   0.5475231627E+00  0.5182898403E+00  0.2723930725E+00
           6
 Time step:         330
O  -0.1382581739E+01  0.1364141365E-01 -0.2740778569E+00
O   0.1359257488E+01 -0.5545563409E-01  0.3644296971E+00
H  -0.1665135794E+01  0.5507589546E+00 -0.1108448671E+01
H  -0.8160500333E+00 -0.7957639227E+00 -0.5106233611E+00
H   0.2121922112E+01  0.5176942460E+00  0.1767184036E+00
H   0.4731076319E+00  0.4065696170E+00  0.3524188092E+00
           6
 Time step:         340
O  -0.1360634806E+01  0.1766566395E-01 -0.2703907117E+00
O   0.1341071264E+01 -0.6610827976E-01  0.3583924961E+00
H  -0.1590397666E+01  0.5056655996E+00 -0.1153861609E+01
H  -0.8578928781E+00 -0.8106609898E+00 -0.6108327101E+00
H   0.2017911630E+01  0.6567126059E+00  0.2407477031E+00
H   0.4845327617E+00  0.4327477298E+00  0.4713119382E+00
           6
 Time step:         350
O  -0.1334887036E+01  0.1962937127E-01 -0.2839846635E+00
O   0.1321157788E+01 -0.6031134227E-01  0.3531016826E+00
H  -0.1584135153E+01  0.5674362108E+00 -0.1090994834E+01
H  -0.8370817870E+00 -0.8442793479E+00 -0.5028140993E+00
H   0.1974801826E+01  0.6845878689E+00  0.2908401375E+00
H   0.4079669181E+00  0.2535430762E+00  0.5500735647E+00
           6
 Time step:         360
O  -0.1317074718E+01  0.2354686091E-01 -0.2734944775E+00
O   0.1304173555E+01 -0.6831215394E-01  0.3496732750E+00
H  -0.1466717207E+01  0.5127274350E+00 -0.1146438292E+01
H  -0.8191346214E+00 -0.8153011053E+00 -0.6300164705E+00
H   0.1846537082E+01  0.7893654827E+00  0.3713998019E+00
H   0.3877231696E+00  0.2393065815E+00  0.5400750150E+00
           6
 Time step:         370
O  -0.1302021432E+01  0.1637994834E-01 -0.2880516673E+00
O   0.1287781253E+01 -0.6173839186E-01  0.3530816712E+00
H  -0.1420905643E+01  0.6525057553E+00 -0.1032924941E+01
H  -0.8078778555E+00 -0.8479818000E+00 -0.5423966038E+00
H   0.1851141088E+01  0.7752559883E+00  0.4161383698E+00
H   0.3473037423E+00  0.1557329506E+00  0.4711571481E+00
           6
 Time step:         380
O  -0.1300440699E+01  0.7842367226E-02 -0.2830316857E+00
O   0.1279372104E+01 -0.5984703715E-01  0.3581060488E+00
H  -0.1273900899E+01  0.6545194199E+00 -0.1038372436E+01
H  -0.8826256465E+00 -0.8248884090E+00 -0.7531074299E+00
H   0.1869633821E+01  0.7676097034E+00  0.4646611540E+00
H   0.3649348250E+00  0.2437612454E+00  0.4793683760E+00
           6
 Time step:         390
O  -0.1301855205E+01 -0.6892164736E-03 -0.3056500800E+00
O   0.1280151261E+01 -0.4878664914E-01  0.3647068850E+00
H  -0.1242556996E+01  0.7625833294E+00 -0.9109947924E+00
H  -0.9913178602E+00 -0.8851852395E+00 -0.7221821145E+00
H   0.1949029751E+01  0.7000391905E+00  0.5199242865E+00
H   0.3729714948E+00  0.2234274383E+00  0.5200333482E+00
           6
 Time step:         400
O  -0.1321046655E+01 -0.6613734836E-03 -0.3073639125E+00
O   0.1295652730E+01 -0.4691940138E-01  0.3657445652E+00
H  -0.1175130952E+01  0.7045563429E+00 -0.9830130493E+00
H  -0.9862660137E+00 -0.8290245015E+00 -0.8266895549E+00
H   0.1917966077E+01  0.7008282715E+00  0.6582885903E+00
H   0.3901247558E+00  0.1944256814E+00  0.5689266473E+00
           6
 Time step:         410
O  -0.1340969468E+01  0.3385482019E-02 -0.3283098194E+00
O   0.1320342223E+01 -0.4374544625E-01  0.3671066283E+00
H  -0.1183903204E+01  0.7449608692E+00 -0.9467640611E+00
H  -0.9669584767E+00 -0.8710641609E+00 -0.6985458478E+00
H   0.1834408894E+01  0.6933282848E+00  0.8260651573E+00
H   0.3874897867E+00  0.8895192394E-01  0.5475926222E+00
           6
 Time step:         420
O  -0.1367925346E+01  0.7155169188E-02 -0.3346059354E+00
O   0.1345700669E+01 -0.3561725348E-01  0.3699400131E+00
H  -0.1118736243E+01  0.6870057422E+00 -0.1013679199E+01
H  -0.9428454512E+00 -0.8410555034E+00 -0.7095392961E+00
H   0.1758254030E+01  0.6271494988E+00  0.9931003819E+00
H   0.3997191537E+00 -0.5766254000E-02  0.5134265378E+00
           6
 Time step:         430
O  -0.1381352086E+01  0.5007889918E-02 -0.3499248767E+00
O   0.1368079985E+01 -0.2507108623E-01  0.3777506871E+00
H  -0.1101205810E+01  0.7097676178E+00 -0.9881030537E+00
H  -0.1083395366E+01 -0.8941972854E+00 -0.7080747008E+00
H   0.1722512650E+01  0.5186503574E+00  0.1127733158E+01
H   0.4163845286E+00 -0.1945556702E-03  0.4709244202E+00
           6
 Time step:         440
O  -0.1387130959E+01 -0.5754290236E-03 -0.3566156826E+00
O   0.1383640566E+01 -0.8902973013E-02  0.3907780171E+00
H  -0.1077231751E+01  0.6769007973E+00 -0.1026902359E+01
H  -0.1303708563E+01 -0.8944581047E+00 -0.7997186051E+00
H   0.1752272023E+01  0.3625745703E+00  0.1210844881E+01
H   0.4277087735E+00  0.2100676518E-01  0.4176824473E+00
           6
 Time step:         450
O  -0.1385846324E+01 -0.7422963706E-02 -0.3658309455E+00
O   0.1399353201E+01  0.5992706596E-02  0.3984823228E+00
H  -0.1059360368E+01  0.6482400235E+00 -0.1055223421E+01
H  -0.1541446826E+01 -0.8616384045E+00 -0.8535887891E+00
H   0.1690117388E+01  0.2130014566E+00  0.1298943866E+01
H   0.4399492273E+00  0.3868060572E-01  0.4357566581E+00
           6
 Time step:         460
O  -0.1376589735E+01 -0.1290504986E-01 -0.3795023741E+00
O   0.1405188164E+01  0.2719847470E-01  0.4136554083E+00
H  -0.1101184777E+01  0.6554221700E+00 -0.1081150489E+01
H  -0.1742026362E+01 -0.8104764382E+00 -0.7986003427E+00
H   0.1678840426E+01  0.4696018536E-01  0.1324932137E+01
H   0.4540966711E+00 -0.1031888890E+00  0.3568726757E+00
           6
 Time step:         470
O  -0.1363502633E+01 -0.1531008980E-01 -0.3831858036E+00
O   0.1407633033E+01  0.4516621677E-01  0.4234809061E+00
H  -0.1150097782E+01  0.6079433814E+00 -0.1152109084E+01
H  -0.1871577005E+01 -0.7331592083E+00 -0.8000874122E+00
H   0.1576260905E+01 -0.9480835409E-01  0.1348438440E+01
H   0.4886160143E+00 -0.2382703685E+00  0.3083249868E+00
           6
 Time step:         480
O  -0.1348426333E+01 -0.2536148419E-01 -0.3984843070E+00
O   0.1399599591E+01  0.5310244148E-01  0.4383754657E+00
H  -0.1139244194E+01  0.6613108538E+00 -0.1095578255E+01
H  -0.1979486668E+01 -0.6783538036E+00 -0.6856379412E+00
H   0.1531650343E+01 -0.1815516607E+00  0.1337495878E+01
H   0.5184982572E+00 -0.2261279151E+00  0.1546986558E+00
           6
 Time step:         490
O  -0.1321242216E+01 -0.3699076911E-01 -0.3985653200E+00
O   0.1394124177E+01  0.5787000226E-01  0.4429963888E+00
H  -0.1241037104E+01  0.6616027478E+00 -0.1118530428E+01
H  -0.2053613717E+01 -0.5638295292E+00 -0.7232722072E+00
H   0.1396894960E+01 -0.2643074015E+00  0.1329567743E+01
H   0.4846125533E+00 -0.1492788928E+00  0.1511556728E+00
           6
 Time step:         500
O  -0.1302826101E+01 -0.4313846352E-01 -0.4197936682E+00
O   0.1377048279E+01  0.5343494607E-01  0.4512444894E+00
H  -0.1228701006E+01  0.7552309569E+00 -0.9891811713E+00
H  -0.2056020969E+01 -0.5875146998E+00 -0.5871488564E+00
H   0.1373947563E+01 -0.2766262502E+00  0.1328989677E+01
H   0.4763591450E+00 -0.3893341168E-01  0.9228393139E-01
           6
 Time step:         510
O  -0.1269070853E+01 -0.4188336909E-01 -0.4296123713E+00
O   0.1362595827E+01  0.5191987313E-01  0.4552928538E+00
H  -0.1452095487E+01  0.7758311410E+00 -0.9443913847E+00
H  -0.2062729109E+01 -0.5541417070E+00 -0.5908178961E+00
H   0.1328920605E+01 -0.2809368803E+00  0.1341382762E+01
H   0.4451143073E+00 -0.8446957203E-01  0.1303570564E+00
           6
 Time step:         520
O  -0.1258142508E+01 -0.2949342525E-01 -0.4529104635E+00
O   0.1342428123E+01  0.4639388324E-01  0.4647211409E+00
H  -0.1482681463E+01  0.8268289799E+00 -0.8087555378E+00
H  -0.1940905596E+01 -0.6904183905E+00 -0.4787789330E+00
H   0.1375190246E+01 -0.2488478832E+00  0.1365538542E+01
H   0.4542544425E+00 -0.1402245635E+00  0.7866834441E-01
           6
 Time step:         530
O  -0.1230852473E+01 -0.2304550306E-01 -0.4662947125E+00
O   0.1333278718E+01  0.4224654170E-01  0.4678310408E+00
H  -0.1674922319E+01  0.7802787749E+00 -0.7086150348E+00
H  -0.1946732497E+01 -0.6752539586E+00 -0.4891925784E+00
H   0.1316450513E+01 -0.2338826561E+00  0.1392965429E+01
H   0.4231334235E+00 -0.1603188869E+00  0.1245893158E+00
           6
 Time step:         540
O  -0.1232266862E+01 -0.1914072966E-01 -0.4816580100E+00
O   0.1327805902E+01  0.3168668285E-01  0.4765477293E+00
H  -0.1641496962E+01  0.8070227040E+00 -0.5871373083E+00
H  -0.1829899831E+01 -0.7734946711E+00 -0.4898985102E+00
H   0.1287379020E+01 -0.1910869014E+00  0.1424240504E+01
H   0.4112607926E+00 -0.2598818232E-01  0.7803758277E-01
           6
 Time step:         550
O  -0.1222593487E+01 -0.1657742828E-01 -0.4929396362E+00
O   0.1334080026E+01  0.2325862894E-01  0.4832675952E+00
H  -0.1752654878E+01  0.7453358397E+00 -0.4959203655E+00
H  -0.1851253812E+01 -0.7576612894E+00 -0.5355834184E+00
H   0.1169409066E+01 -0.1564173547E+00  0.1448052445E+01
H   0.4086235556E+00  0.7828124672E-01  0.8109797831E-01
           6
 Time step:         560
O  -0.1234525741E+01 -0.7158151500E-02 -0.5019505180E+00
O   0.1340091373E+01  0.1790442310E-01  0.4977984283E+00
H  -0.1785938358E+01  0.7251861541E+00 -0.4316204881E+00
H  -0.1738845668E+01 -0.8262983277E+00 -0.6065677939E+00
H   0.1121279627E+01 -0.1231382144E+00  0.1467093337E+01
H   0.4716051025E+00  0.6926792881E-01 -0.1887121151E-01
           6
 Time step:         570
O  -0.1242120381E+01  0.3341074076E-02 -0.5098838628E+00
O   0.1355612423E+01  0.1492601473E-01  0.5101516204E+00
H  -0.1896156903E+01  0.6539422304E+00 -0.4034372683E+00
H  -0.1678898259E+01 -0.8350928680E+00 -0.6858791723E+00
H   0.1019243264E+01 -0.8940414485E-01  0.1469856023E+01
H   0.4981044309E+00 -0.3798265366E-02 -0.4065765915E-01
           6
 Time step:         580
O  -0.1253297167E+01  0.8951713362E-02 -0.5176957093E+00
O   0.1364406816E+01  0.7977336694E-02  0.5242540726E+00
H  -0.1962303774E+01  0.5984501891E+00 -0.3799283817E+00
H  -0.1626568020E+01 -0.8302022141E+00 -0.7906970698E+00
H   0.1019329336E+01 -0.3948190087E-01  0.1490266743E+01
H   0.5496484082E+00  0.1811826190E-01 -0.7960400847E-01
           6
 Time step:         590
O  -0.1267010452E+01  0.7341008048E-02 -0.5258051058E+00
O   0.1376573107E+01 -0.2071424689E-02  0.5347640230E+00
H  -0.1993422628E+01  0.5917175135E+00 -0.3762284379E+00
H  -0.1550861991E+01 -0.8067375378E+00 -0.9030367558E+00
H   0.1014924413E+01  0.1925024900E-01  0.1509061215E+01
H   0.5340200922E+00  0.1277134452E+00 -0.2786038640E-01
           6
 Time step:         600
O  -0.1269059753E+01  0.8191021608E-02 -0.5315077748E+00
O   0.1376330915E+01 -0.8043091982E-02  0.5445816573E+00
H  -0.2066464471E+01  0.5249973577E+00 -0.4152330500E+00
H  -0.1556279225E+01 -0.7506262037E+00 -0.1008816597E+01
H   0.1126585780E+01  0.4505266828E-01  0.1552373566E+01
H   0.5371884312E+00  0.1938108582E+00  0.8298891575E-02
           6
 Time step:         610
O  -0.1281219388E+01  0.7599758033E-02 -0.5387350613E+00
O   0.1378042063E+01 -0.9768186234E-02  0.5502169919E+00
H  -0.2065308924E+01  0.5535100750E+00 -0.4296032262E+00
H  -0.1403921535E+01 -0.7211822401E+00 -0.1096304170E+01
H   0.1209156363E+01  0.5990727228E-01  0.1578013718E+01
H   0.4669432381E+00  0.1577648606E+00  0.1097839876E+00
           6
 Time step:         620
O  -0.1274728236E+01  0.1181158274E-01 -0.5354812391E+00
O   0.1370893520E+01 -0.7139360148E-02  0.5547463914E+00
H  -0.2133240477E+01  0.4794720476E+00 -0.5585016956E+00
H  -0.1389872035E+01 -0.6439781173E+00 -0.1193204372E+01
H   0.1328516457E+01  0.5611506998E-01  0.1593426174E+01
H   0.4118993234E+00  0.4981599593E-01  0.1966347252E+00
           6
 Time step:         630
O  -0.1282404479E+01  0.6371832801E-02 -0.5411520722E+00
O   0.1361747508E+01 -0.5401761471E-02  0.5579073996E+00
H  -0.2090618277E+01  0.5469754129E+00 -0.5507352712E+00
H  -0.1201848458E+01 -0.5931269055E+00 -0.1247508838E+01
H   0.1412939181E+01  0.4117675772E-01  0.1589975176E+01
H   0.3638340676E+00  0.5160365140E-02  0.2864597673E+00
           6
 Time step:         640
O  -0.1273948865E+01 -0.5077165100E-02 -0.5296473591E+00
O   0.1349325729E+01 -0.6831002969E-02  0.5596322105E+00
H  -0.2066585391E+01  0.5576562267E+00 -0.6997238460E+00
H  -0.1178934250E+01 -0.4499338237E+00 -0.1365362405E+01
H   0.1456422788E+01  0.1941622454E-01  0.1582275073E+01
H   0.3363544315E+00  0.7745072607E-01  0.3510226930E+00
           6
 Time step:         650
O  -0.1278762472E+01 -0.1896393129E-01 -0.5348974950E+00
O   0.1334224495E+01 -0.7585033167E-02  0.5623411232E+00
H  -0.1970541212E+01  0.6609493018E+00 -0.6344494011E+00
H  -0.9672699047E+00 -0.3807142687E+00 -0.1358702091E+01
H   0.1473222349E+01 -0.1180785047E-01  0.1563179637E+01
H   0.3279351828E+00  0.1685412407E+00  0.3385177267E+00
           6
 Time step:         660
O  -0.1276951578E+01 -0.3692555679E-01 -0.5235288213E+00
O   0.1322430769E+01 -0.2855523989E-02  0.5578698298E+00
H  -0.1822413006E+01  0.7529016602E+00 -0.7421597076E+00
H  -0.8458847241E+00 -0.2104065371E+00 -0.1385177475E+01
H   0.1389360154E+01 -0.5854231868E-01  0.1558261816E+01
H   0.3007317428E+00  0.1630360855E+00  0.3681458535E+00
           6
 Time step:         670
O  -0.1273352596E+01 -0.3763123873E-01 -0.5334239098E+00
O   0.1303418949E+01  0.1121525248E-01  0.5605472129E+00
H  -0.1728032648E+01  0.8110003438E+00 -0.6504755121E+00
H  -0.6846931020E+00 -0.2536557606E+00 -0.1280443680E+01
H   0.1398554225E+01 -0.1604284796E+00  0.1524319950E+01
H   0.2805986316E+00  0.3794168878E-01  0.3202293227E+00
           6
 Time step:         680
O  -0.1267032642E+01 -0.4600052453E-01 -0.5361511063E+00
O   0.1284539372E+01  0.2682579102E-01  0.5612282380E+00
H  -0.1545346541E+01  0.8782086269E+00 -0.6706006503E+00
H  -0.6624116000E+00 -0.2106039984E+00 -0.1311142051E+01
H   0.1432016286E+01 -0.2835258938E+00  0.1480805533E+01
H   0.2415156052E+00 -0.6415427699E-01  0.4470441291E+00
           6
 Time step:         690
O  -0.1254648018E+01 -0.4392567129E-01 -0.5518602462E+00
O   0.1255782423E+01  0.3791706791E-01  0.5773673639E+00
H  -0.1417984918E+01  0.9068108197E+00 -0.5742362664E+00
H  -0.7083319836E+00 -0.3203153042E+00 -0.1333762704E+01
H   0.1630127560E+01 -0.3863610246E+00  0.1351745853E+01
H   0.2218250016E+00 -0.8918316258E-01  0.4955353304E+00
           6
 Time step:         700
O  -0.1247133364E+01 -0.4681555467E-01 -0.5589196032E+00
O   0.1236280451E+01  0.5640877639E-01  0.5864384202E+00
H  -0.1248975155E+01  0.9224102233E+00 -0.5843704717E+00
H  -0.7344700089E+00 -0.3282794852E+00 -0.1381672244E+01
H   0.1669861233E+01 -0.5228256818E+00  0.1220958965E+01
H   0.2294826064E+00 -0.2079862666E+00  0.6524362257E+00
           6
 Time step:         710
O  -0.1243564513E+01 -0.4461058826E-01 -0.5680122569E+00
O   0.1216243835E+01  0.6389184444E-01  0.6102896383E+00
H  -0.1100757147E+01  0.9124731650E+00 -0.5534011890E+00
H  -0.7241420234E+00 -0.3974249525E+00 -0.1362854809E+01
H   0.1776393218E+01 -0.5774003247E+00  0.1032938785E+01
H   0.2257813786E+00 -0.2280978108E+00  0.5564214026E+00
           6
 Time step:         720
O  -0.1242622473E+01 -0.4137257771E-01 -0.5785116040E+00
O   0.1203027923E+01  0.7974553894E-01  0.6297768651E+00
H  -0.9690520944E+00  0.8897074413E+00 -0.5142201149E+00
H  -0.6924166548E+00 -0.4601862653E+00 -0.1323726731E+01
H   0.1758740274E+01 -0.6698234890E+00  0.8697796934E+00
H   0.2748150951E+00 -0.3531716061E+00  0.4986155041E+00
           6
 Time step:         730
O  -0.1239435776E+01 -0.4257637119E-01 -0.5880529263E+00
O   0.1191622398E+01  0.7351206553E-01  0.6476175046E+00
H  -0.8708682503E+00  0.8575005081E+00 -0.5078830177E+00
H  -0.7193044465E+00 -0.4408633634E+00 -0.1368659540E+01
H   0.1849283573E+01 -0.6197274786E+00  0.7383279786E+00
H   0.2434251886E+00 -0.2723391060E+00  0.5369359716E+00
           6
 Time step:         740
O  -0.1227026832E+01 -0.4074926216E-01 -0.6009983523E+00
O   0.1185064005E+01  0.8178515642E-01  0.6630887119E+00
H  -0.8864152814E+00  0.8699363695E+00 -0.5048278080E+00
H  -0.8308436542E+00 -0.4568484663E+00 -0.1432528163E+01
H   0.1835303621E+01 -0.6533780861E+00  0.6265805408E+00
H   0.2916312863E+00 -0.3954498696E+00  0.6694075620E+00
           6
 Time step:         750
O  -0.1227148870E+01 -0.4504694339E-01 -0.6085561217E+00
O   0.1180918023E+01  0.7433251547E-01  0.6820891185E+00
H  -0.8177574993E+00  0.8542460316E+00 -0.5618599761E+00
H  -0.8855258418E+00 -0.3790065993E+00 -0.1504602074E+01
H   0.1902939197E+01 -0.5758716591E+00  0.5372538709E+00
H   0.2777622354E+00 -0.3486064315E+00  0.7062225009E+00
           6
 Time step:         760
O  -0.1225668255E+01 -0.4156698215E-01 -0.6254123496E+00
O   0.1181726114E+01  0.8217206657E-01  0.7081128816E+00
H  -0.7643653811E+00  0.8228602471E+00 -0.4795707244E+00
H  -0.9936577937E+00 -0.4409039408E+00 -0.1513269933E+01
H   0.1877790180E+01 -0.6015465005E+00  0.4597582581E+00
H   0.3213247016E+00 -0.4093120327E+00  0.5645893843E+00
           6
 Time step:         770
O  -0.1233288342E+01 -0.4544828162E-01 -0.6294153261E+00
O   0.1179301555E+01  0.7317908360E-01  0.7280846679E+00
H  -0.6504237825E+00  0.7716350410E+00 -0.5735592001E+00
H  -0.1029969487E+01 -0.3580230644E+00 -0.1564551249E+01
H   0.1958373615E+01 -0.4963598504E+00  0.4411529445E+00
H   0.3225402220E+00 -0.3418134349E+00  0.4750071623E+00
           6
 Time step:         780
O  -0.1221720792E+01 -0.3998245773E-01 -0.6471772715E+00
O   0.1175269000E+01  0.7226499545E-01  0.7479100894E+00
H  -0.6908223087E+00  0.7949571809E+00 -0.5523294021E+00
H  -0.1211516815E+01 -0.4051920268E+00 -0.1564427969E+01
H   0.1990338131E+01 -0.4337244506E+00  0.3929169014E+00
H   0.3929259566E+00 -0.4528472698E+00  0.4691385856E+00
           6
 Time step:         790
O  -0.1214277345E+01 -0.4540740821E-01 -0.6515707731E+00
O   0.1169627827E+01  0.6496511993E-01  0.7602841551E+00
H  -0.6986876919E+00  0.8230415561E+00 -0.6977484693E+00
H  -0.1308796897E+01 -0.2849156122E+00 -0.1607714924E+01
H   0.2036262715E+01 -0.3157890024E+00  0.3741541577E+00
H   0.4235410991E+00 -0.5171747661E+00  0.5499396480E+00
           6
 Time step:         800